Data file for TraPPE -UA Butane

 4 atoms
 3 bonds
 2 angles
 1 dihedrals

 2 atom types
 1 bond types
 1 angle types
 1 dihedral types

 0.0 6.0 xlo xhi
 0.0 6.0 ylo yhi
 0.0 6.0 zlo zhi

Masses 

1 15.035
2 14.027

Atoms

1 1 1 0.0 1.000  1.000  1.000
2 1 2 0.0 2.540  1.000  1.000
3 1 2 0.0 3.090  2.440  1.000
4 1 1 0.0 4.640  2.440  1.000

Bonds

1 1 1 2
2 1 2 3
3 1 3 4

Angles

1 1 1 2 3
2 1 2 3 4

Dihedrals

1 1 1 2 3 4
